<?xml version="1.0" encoding="UTF-8"?>

<!-- generated on 2021-10-22 19:58:28 by Eclipse SUMO sumo Version 1.10.0
<configuration xmlns:xsi="http://www.w3.org/2001/XMLSchema-instance" xsi:noNamespaceSchemaLocation="http://sumo.dlr.de/xsd/sumoConfiguration.xsd">

    <input>
        <net-file value="C:\Users\diani\Sumo\2021-10-22-19-57-50\osm.net.xml"/>
        <route-files value="C:\Users\diani\Sumo\2021-10-22-19-57-50\trips.trips.xml"/>
        <additional-files value="C:\Users\diani\Sumo\2021-10-22-19-57-50\osm_stops.add.xml"/>
    </input>

    <output>
        <vehroute-output value="C:\Users\diani\Sumo\2021-10-22-19-57-50\vehroutes.xml"/>
        <stop-output value="C:\Users\diani\Sumo\2021-10-22-19-57-50\stopinfos.xml"/>
    </output>

    <time>
        <begin value="0"/>
    </time>

    <processing>
        <ignore-route-errors value="true"/>
    </processing>

    <routing>
        <device.rerouting.adaptation-interval value="0"/>
    </routing>

    <report>
        <aggregate-warnings value="5"/>
        <error-log value="C:\Users\diani\Sumo\2021-10-22-19-57-50\trips.trips.xml.errorlog"/>
        <no-step-log value="true"/>
    </report>

</configuration>
-->

<routes xmlns:xsi="http://www.w3.org/2001/XMLSchema-instance" xsi:noNamespaceSchemaLocation="http://sumo.dlr.de/xsd/routes_file.xsd">
    <vehicle id="18_subway_S:0" type="pt_subway" depart="52.00" departLane="0" arrival="166.00">
        <route edges="817036018"/>
        <stop busStop="7630776657" duration="30.00"/>
        <stop busStop="7630776662" duration="30.00"/>
    </vehicle>

    <vehicle id="16_subway_JSQ–33_via_HOB:0" type="pt_subway" depart="47.00" departLane="0" arrival="217.00">
        <route edges="-552266811 -579074444 802782788 813712317 -552266808"/>
        <stop busStop="-5332398711" duration="30.00"/>
        <stop busStop="5551785165" duration="30.00"/>
        <stop busStop="-7509382447" duration="30.00"/>
    </vehicle>

    <vehicle id="0_bus_2602:0" type="pt_bus" depart="0.00" departLane="0" arrival="228.00">
        <route edges="767683111#1 767683110#2 767683108#0 460069727#1 5672730 207542284 36806908 46492009 968406200 46482819#1 320888292"/>
        <stop busStop="7167585626" duration="30.00"/>
    </vehicle>

    <vehicle id="43_train_Harlem:0" type="pt_train" depart="131.00" departLane="0" arrival="229.00">
        <route edges="759945015"/>
        <stop busStop="100515086" duration="30.00"/>
    </vehicle>

    <vehicle id="1_bus_2601:0" type="pt_bus" depart="39.00" departLane="0" arrival="273.00">
        <route edges="767683111#1 767683110#2 767683108#0 460069727#1 5672730 207542284 36806908 46492009 968406200 46482819#1 320888292"/>
        <stop busStop="7167585626" duration="30.00"/>
    </vehicle>

    <vehicle id="19_subway_S:1" type="pt_subway" depart="166.00" departLane="0" arrival="280.00">
        <route edges="-821671625#1"/>
        <stop busStop="-7630776662" duration="30.00"/>
        <stop busStop="-7630776657" duration="30.00"/>
    </vehicle>

    <vehicle id="45_train_Hudson:0" type="pt_train" depart="201.00" departLane="0" arrival="299.00">
        <route edges="759945015"/>
        <stop busStop="100515086" duration="30.00"/>
    </vehicle>

    <vehicle id="2_bus_2601:1" type="pt_bus" depart="6.00" departLane="0" arrival="313.00">
        <route edges="5669566 36806907 46492015 46492007 465256869 465256868 68325075 500182596 5670275 420901925 36806658 36806659#0 36806659#1 767683112#0 767683112#1 767683107#2 767683111#0 767683111#1"/>
        <stop busStop="7167585626" duration="30.00"/>
    </vehicle>

    <vehicle id="44_bus_125:0" type="pt_bus" depart="131.00" departLane="1" arrival="313.00">
        <route edges="8028096 5669218 36807165#0 36807165#1 223694351 273895450 36807166 5669332#1 36836400#0 36836400#1 36807214 -36807212"/>
    </vehicle>

    <vehicle id="17_subway_JSQ–33_via_HOB:1" type="pt_subway" depart="93.00" departLane="0" arrival="329.00">
        <route edges="591434572 802782787 579074443 552266811"/>
        <stop busStop="5404334152" duration="30.00"/>
        <stop busStop="7509382448" duration="30.00"/>
        <stop busStop="5551785164" duration="30.00"/>
        <stop busStop="5332398711" duration="30.00"/>
    </vehicle>

    <vehicle id="90_bus_M23_SBS:0" type="pt_bus" depart="253.00" departLane="0" arrival="351.00">
        <route edges="22904005 763121489 34625463#0 34625463#2 34625463#3 -420908136#0"/>
        <stop busStop="8378777761" duration="30.00"/>
    </vehicle>

    <vehicle id="3_bus_2602:1" type="pt_bus" depart="11.00" departLane="1" arrival="352.00">
        <route edges="5669566 36806907 46492015 46492007 465256869 465256868 68325075 500182596 5670275 420901925 36806658 36806659#0 36806659#1 767683112#0 767683112#1 767683107#2 767683111#0 767683111#1"/>
        <stop busStop="7167585626" duration="30.00"/>
    </vehicle>

    <vehicle id="9_bus_2686:1" type="pt_bus" depart="117.00" departLane="0" arrival="352.00">
        <route edges="767683111#1 767683110#2 767683108#0 460069727#1 5672730 207542284 36806908 46492009 968406200 46482819#1 320888292"/>
        <stop busStop="7167585626" duration="30.00"/>
    </vehicle>

    <vehicle id="117_bus_M14A_SBS:1" type="pt_bus" depart="334.00" departLane="1" arrival="379.00">
        <route edges="350726031#1"/>
        <stop busStop="3913758293" duration="30.00"/>
    </vehicle>

    <vehicle id="10_bus_2601:2" type="pt_bus" depart="155.00" departLane="0" arrival="392.00">
        <route edges="767683111#1 767683110#2 767683108#0 460069727#1 5672730 207542284 36806908 46492009 968406200 46482819#1 320888292"/>
        <stop busStop="7167585626" duration="30.00"/>
    </vehicle>

    <vehicle id="105_train_New_Haven:0" type="pt_train" depart="305.00" departLane="0" arrival="403.00">
        <route edges="759945015"/>
        <stop busStop="100515086" duration="30.00"/>
    </vehicle>

    <vehicle id="97_bus_M66:0" type="pt_bus" depart="272.00" departLane="1" arrival="421.00">
        <route edges="968393473#0 968393473#6 945384088#1 945384088#3 945384088#5"/>
        <stop busStop="3278932320" duration="30.00"/>
    </vehicle>

    <vehicle id="13_bus_2683:1" type="pt_bus" depart="194.00" departLane="0" arrival="433.00">
        <route edges="767683111#1 767683110#2 767683108#0 460069727#1 5672730 207542284 36806908 46492009 968406200 46482819#1 320888292"/>
        <stop busStop="7167585626" duration="30.00"/>
    </vehicle>

    <vehicle id="8_bus_2686:0" type="pt_bus" depart="27.00" departLane="1" arrival="435.00">
        <route edges="5669566 36806907 46492015 46492007 465256869 465256868 68325075 500182596 5670275 420901925 36806658 36806659#0 36806659#1 767683112#0 767683112#1 767683107#2 767683111#0 767683111#1"/>
        <stop busStop="7167585626" duration="30.00"/>
    </vehicle>

    <vehicle id="150_bus_QM7:0" type="pt_bus" depart="437.00" departLane="1" arrival="473.00">
        <route edges="169383516#1"/>
        <stop busStop="6133359418" duration="30.00"/>
    </vehicle>

    <vehicle id="14_bus_2680:0" type="pt_bus" depart="232.00" departLane="0" arrival="474.00">
        <route edges="767683111#1 767683110#2 767683108#0 460069727#1 5672730 207542284 36806908 46492009 968406200 46482819#1 320888292"/>
        <stop busStop="7167585626" duration="30.00"/>
    </vehicle>

    <vehicle id="11_bus_2601:3" type="pt_bus" depart="34.00" departLane="0" arrival="476.00">
        <route edges="5669566 36806907 46492015 46492007 465256869 465256868 68325075 500182596 5670275 420901925 36806658 36806659#0 36806659#1 767683112#0 767683112#1 767683107#2 767683111#0 767683111#1"/>
        <stop busStop="7167585626" duration="30.00"/>
    </vehicle>

    <vehicle id="23_subway_5:1" type="pt_subway" depart="59.00" departLane="0" arrival="482.00">
        <route edges="817018813"/>
        <stop busStop="4983147337" duration="30.00"/>
        <stop busStop="7630558481" duration="30.00"/>
        <stop busStop="7630410489" duration="30.00"/>
        <stop busStop="7630379982" duration="30.00"/>
    </vehicle>

    <vehicle id="22_subway_5:0" type="pt_subway" depart="58.00" departLane="0" arrival="485.00">
        <route edges="816983740"/>
        <stop busStop="7630379968" duration="30.00"/>
        <stop busStop="7630379974" duration="30.00"/>
        <stop busStop="7630588825" duration="30.00"/>
        <stop busStop="4983147359" duration="30.00"/>
    </vehicle>

    <vehicle id="30_subway_D:0" type="pt_subway" depart="91.00" departLane="0" arrival="488.00">
        <route edges="813712314 819186612 715214988 816331850"/>
        <stop busStop="7650206934" duration="30.00"/>
        <stop busStop="7657247704" duration="30.00"/>
        <stop busStop="7650206932" duration="30.00"/>
        <stop busStop="7657247698" duration="30.00"/>
        <stop busStop="6463379284" duration="30.00"/>
    </vehicle>

    <vehicle id="46_train_55:0" type="pt_train" depart="132.00" departLane="0" arrival="489.00">
        <route edges="756094508 46493326 879081748#1 756094522 5671507#0 5671507#1 5671507#2 5671507#3 32965981"/>
        <stop busStop="6342154195" duration="30.00"/>
    </vehicle>

    <vehicle id="28_subway_A:0" type="pt_subway" depart="77.00" departLane="0" arrival="492.00">
        <route edges="46340129 816679186 719086610#0"/>
        <stop busStop="6463380709" duration="30.00"/>
        <stop busStop="6751642217" duration="30.00"/>
        <stop busStop="6751622968" duration="30.00"/>
        <stop busStop="6923621274" duration="30.00"/>
        <stop busStop="6923621238" duration="30.00"/>
        <stop busStop="6923621199" duration="30.00"/>
    </vehicle>

    <vehicle id="110_subway_HOB–33:0" type="pt_subway" depart="322.00" departLane="0" arrival="492.00">
        <route edges="-552266810 802782788 813712317 -552266808"/>
        <stop busStop="-5332358378" duration="30.00"/>
        <stop busStop="5551785165" duration="30.00"/>
        <stop busStop="-7509382447" duration="30.00"/>
    </vehicle>

    <vehicle id="24_subway_5:2" type="pt_subway" depart="74.00" departLane="0" arrival="494.00">
        <route edges="817018813"/>
        <stop busStop="4983147337" duration="30.00"/>
        <stop busStop="7630558481" duration="30.00"/>
        <stop busStop="7630410489" duration="30.00"/>
        <stop busStop="7630379982" duration="30.00"/>
    </vehicle>

    <vehicle id="29_subway_A:1" type="pt_subway" depart="79.00" departLane="0" arrival="496.00">
        <route edges="741691192 816336111 689037414"/>
        <stop busStop="6923621203" duration="30.00"/>
        <stop busStop="6923621236" duration="30.00"/>
        <stop busStop="6923621277" duration="30.00"/>
        <stop busStop="6751642166" duration="30.00"/>
        <stop busStop="6751642238" duration="30.00"/>
        <stop busStop="6463380701" duration="30.00"/>
    </vehicle>

    <vehicle id="25_subway_5:3" type="pt_subway" depart="73.00" departLane="0" arrival="500.00">
        <route edges="816983740"/>
        <stop busStop="7630379968" duration="30.00"/>
        <stop busStop="7630379974" duration="30.00"/>
        <stop busStop="7630588825" duration="30.00"/>
        <stop busStop="4983147359" duration="30.00"/>
    </vehicle>

    <vehicle id="31_subway_D:1" type="pt_subway" depart="93.00" departLane="0" arrival="503.00">
        <route edges="171570637 715214987 715214982 819186625"/>
        <stop busStop="6463380721" duration="30.00"/>
        <stop busStop="7657247700" duration="30.00"/>
        <stop busStop="7650206922" duration="30.00"/>
        <stop busStop="591997397" duration="30.00"/>
        <stop busStop="5350434153" duration="30.00"/>
    </vehicle>

    <vehicle id="12_bus_2683:0" type="pt_bus" depart="38.00" departLane="1" arrival="519.00">
        <route edges="5669566 36806907 46492015 46492007 465256869 465256868 68325075 500182596 5670275 420901925 36806658 36806659#0 36806659#1 767683112#0 767683112#1 767683107#2 767683111#0 767683111#1"/>
        <stop busStop="7167585626" duration="30.00"/>
    </vehicle>

    <vehicle id="111_subway_JSQ–33:0" type="pt_subway" depart="323.00" departLane="0" arrival="521.00">
        <route edges="591434572 802782787 552256574"/>
        <stop busStop="5404334152" duration="30.00"/>
        <stop busStop="7509382448" duration="30.00"/>
        <stop busStop="5551785164" duration="30.00"/>
    </vehicle>

    <vehicle id="32_subway_D:2" type="pt_subway" depart="106.00" departLane="0" arrival="538.00">
        <route edges="813712314 819186612 715214988 816331850"/>
        <stop busStop="7650206934" duration="30.00"/>
        <stop busStop="7657247704" duration="30.00"/>
        <stop busStop="7650206932" duration="30.00"/>
        <stop busStop="7657247698" duration="30.00"/>
        <stop busStop="6463379284" duration="30.00"/>
    </vehicle>

    <vehicle id="131_subway_L:0" type="pt_subway" depart="383.00" departLane="0" arrival="552.00">
        <route edges="815767574#0 815767574#1 815767574#2"/>
        <stop busStop="7618745559" duration="30.00"/>
        <stop busStop="5332358381" duration="30.00"/>
        <stop busStop="7618745565" duration="30.00"/>
    </vehicle>

    <vehicle id="48_train_57:0" type="pt_train" depart="166.00" departLane="0" arrival="556.00">
        <route edges="756094508 46493326 879081748#1 756094522 5671507#0 5671507#1 5671507#2 5671507#3 32965981"/>
        <stop busStop="6342154195" duration="30.00"/>
    </vehicle>

    <vehicle id="15_bus_2680:1" type="pt_bus" depart="44.00" departLane="1" arrival="558.00">
        <route edges="5669566 36806907 46492015 46492007 465256869 465256868 68325075 500182596 5670275 420901925 36806658 36806659#0 36806659#1 767683112#0 767683112#1 767683107#2 767683111#0 767683111#1"/>
        <stop busStop="7167585626" duration="30.00"/>
    </vehicle>

    <vehicle id="21_subway_F:1" type="pt_subway" depart="58.00" departLane="0" arrival="569.00">
        <route edges="554387911 819186628 819186615"/>
        <stop busStop="6943260578" duration="30.00"/>
        <stop busStop="7535669386" duration="30.00"/>
        <stop busStop="7657247708" duration="30.00"/>
        <stop busStop="7650207498" duration="30.00"/>
        <stop busStop="7657247706" duration="30.00"/>
        <stop busStop="7650206927" duration="30.00"/>
        <stop busStop="7657247702" duration="30.00"/>
        <stop busStop="7656750799" duration="30.00"/>
    </vehicle>

    <vehicle id="95_bus_M57:0" type="pt_bus" depart="265.00" departLane="1" arrival="578.00">
        <route edges="-421851200#1 -421851200#0 -421851201 -587355676 -375165665 -587038082 -497165757#1 -497165757#0 -388696206 -5670139 -497258109#1 496986969#0 496986969#1 5672752#0 5672752#1 196117083#1 505582406#0 505582406#1 196117084#0 196117084#2"/>
        <stop busStop="4794775932" duration="30.00"/>
        <stop busStop="4794775935" duration="30.00"/>
    </vehicle>

    <vehicle id="20_subway_F:0" type="pt_subway" depart="55.00" departLane="0" arrival="584.00">
        <route edges="46340264 819186626 46340246"/>
        <stop busStop="7656750800" duration="30.00"/>
        <stop busStop="7657247703" duration="30.00"/>
        <stop busStop="597928314" duration="30.00"/>
        <stop busStop="7650206920" duration="30.00"/>
        <stop busStop="7650207492" duration="30.00"/>
        <stop busStop="5551785167" duration="30.00"/>
        <stop busStop="6943277291" duration="30.00"/>
        <stop busStop="6943260575" duration="30.00"/>
    </vehicle>

    <vehicle id="144_train_64:0" type="pt_train" depart="489.00" departLane="0" arrival="590.00">
        <route edges="756094505"/>
        <stop busStop="6165053270" duration="30.00"/>
    </vehicle>

    <vehicle id="162_subway_S:2" type="pt_subway" depart="485.00" departLane="0" arrival="594.00">
        <route edges="-484012802"/>
        <stop busStop="591997437" duration="30.00"/>
        <stop busStop="3918987127" duration="30.00"/>
    </vehicle>

    <vehicle id="26_subway_4:0" type="pt_subway" depart="88.00" departLane="0" arrival="613.00">
        <route edges="816983740"/>
        <stop busStop="7630379968" duration="30.00"/>
        <stop busStop="7630379974" duration="30.00"/>
        <stop busStop="7630588825" duration="30.00"/>
        <stop busStop="4983147359" duration="30.00"/>
    </vehicle>

    <vehicle id="33_subway_D:3" type="pt_subway" depart="108.00" departLane="0" arrival="617.00">
        <route edges="171570637 715214987 715214982 819186625"/>
        <stop busStop="6463380721" duration="30.00"/>
        <stop busStop="7657247700" duration="30.00"/>
        <stop busStop="7650206922" duration="30.00"/>
        <stop busStop="591997397" duration="30.00"/>
        <stop busStop="5350434153" duration="30.00"/>
    </vehicle>

    <vehicle id="4_bus_2610:0" type="pt_bus" depart="15.00" departLane="4" arrival="620.00">
        <route edges="682359027 421852033 989265274#1 989265274#2 989265274#3 194920158#0 194920158#1 194920158#2 814278019#3 814278019#6 814278019#8 814278019#11 420907908 968513231 968513228 968513229 194926855 525729009#0 525729010#0 525729010#1 525729010#4 525729010#6 525729010#7 525729010#8 525729010#10 420901923#0 420901923#1 420901919#0 420901919#1 988515374#0 988515374#1 420901920#1 420901920#2 420901920#3 420901917#1 420901921#0 420901921#1 420901922#0 194926856#1 350726030#1 663515452#1 989270322#1 36806659#0 36806659#1 767683112#0 767683112#1 767683107#2 767683111#0 767683111#1"/>
        <stop busStop="7167585626" duration="30.00"/>
    </vehicle>

    <vehicle id="49_train_2167:0" type="pt_train" depart="234.00" departLane="0" arrival="623.00">
        <route edges="756094508 46493326 879081748#1 756094522 5671507#0 5671507#1 5671507#2 5671507#3 32965981"/>
        <stop busStop="6342154195" duration="30.00"/>
    </vehicle>

    <vehicle id="34_subway_E:0" type="pt_subway" depart="107.00" departLane="0" arrival="642.00">
        <route edges="741691192 719086607 816679188 819186609"/>
        <stop busStop="6923621203" duration="30.00"/>
        <stop busStop="6923621236" duration="30.00"/>
        <stop busStop="6923621277" duration="30.00"/>
        <stop busStop="6751642166" duration="30.00"/>
        <stop busStop="7450462465" duration="30.00"/>
        <stop busStop="7657247699" duration="30.00"/>
        <stop busStop="7650207504" duration="30.00"/>
        <stop busStop="7650173977" duration="30.00"/>
    </vehicle>

    <vehicle id="27_subway_4:1" type="pt_subway" depart="89.00" departLane="0" arrival="644.00">
        <route edges="817018813"/>
        <stop busStop="4983147337" duration="30.00"/>
        <stop busStop="7630558481" duration="30.00"/>
        <stop busStop="7630410489" duration="30.00"/>
        <stop busStop="7630379982" duration="30.00"/>
    </vehicle>

    <vehicle id="35_subway_E:1" type="pt_subway" depart="114.00" departLane="0" arrival="662.00">
        <route edges="759735515 46340266 719086609 719086610#0"/>
        <stop busStop="591998010" duration="30.00"/>
        <stop busStop="5407862242" duration="30.00"/>
        <stop busStop="7657247701" duration="30.00"/>
        <stop busStop="6751642215" duration="30.00"/>
        <stop busStop="6751622968" duration="30.00"/>
        <stop busStop="6923621274" duration="30.00"/>
        <stop busStop="6923621238" duration="30.00"/>
        <stop busStop="6923621199" duration="30.00"/>
    </vehicle>

    <vehicle id="149_subway_JSQ–33:1" type="pt_subway" depart="492.00" departLane="0" arrival="662.00">
        <route edges="-552256574 -579074446#1 -579074446#0 813712317 -552266808"/>
        <stop busStop="-5332398715" duration="30.00"/>
        <stop busStop="5551785165" duration="30.00"/>
        <stop busStop="-7509382447" duration="30.00"/>
    </vehicle>

    <vehicle id="148_subway_HOB–33:1" type="pt_subway" depart="437.00" departLane="0" arrival="673.00">
        <route edges="591434572 579074445#0 579074445#1 552266810"/>
        <stop busStop="5404334152" duration="30.00"/>
        <stop busStop="7509382448" duration="30.00"/>
        <stop busStop="5551785164" duration="30.00"/>
        <stop busStop="5332358378" duration="30.00"/>
    </vehicle>

    <vehicle id="101_bus_M14A_SBS:0" type="pt_bus" depart="285.00" departLane="1" arrival="675.00">
        <route edges="-666752576#2 -666752576#0 -5670924#2 5672434#0 5672434#1 5672434#2 -196117073#2 -196117073#1 -196117073#0 196117074#1 458106348#2 458106348#3 5670451#0 5670451#2 5670451#5 5670451#7 5670451#8 5670451#9 5670451#10 496985713#0 496985713#1 474635899#1 474635904#1"/>
        <stop busStop="3913758293@12382566" duration="30.00"/>
    </vehicle>

    <vehicle id="36_subway_E:2" type="pt_subway" depart="129.00" departLane="0" arrival="676.00">
        <route edges="759735515 46340266 719086609 719086610#0"/>
        <stop busStop="591998010" duration="30.00"/>
        <stop busStop="5407862242" duration="30.00"/>
        <stop busStop="7657247701" duration="30.00"/>
        <stop busStop="6751642215" duration="30.00"/>
        <stop busStop="6751622968" duration="30.00"/>
        <stop busStop="6923621274" duration="30.00"/>
        <stop busStop="6923621238" duration="30.00"/>
        <stop busStop="6923621199" duration="30.00"/>
    </vehicle>

    <vehicle id="47_train_54:0" type="pt_train" depart="133.00" departLane="0" arrival="678.00">
        <route edges="316621098 750256036#0 750256036#1 750256036#2 750256036#3 756094477 571475066#0 571475066#1 750256035#0 750256035#1 750256035#2 750256035#3 572231716 571475065"/>
        <stop busStop="6616343384" duration="30.00"/>
    </vehicle>

    <vehicle id="42_subway_Q:1" type="pt_subway" depart="128.00" departLane="0" arrival="685.00">
        <route edges="46340259 817381421 821206648#0 821206648#1 817381419 817381397 817381417"/>
        <stop busStop="7656750798" duration="30.00"/>
        <stop busStop="7656750807" duration="30.00"/>
        <stop busStop="7633689337" duration="30.00"/>
        <stop busStop="7656750813" duration="30.00"/>
        <stop busStop="7633705497" duration="30.00"/>
        <stop busStop="7633689319" duration="30.00"/>
        <stop busStop="7633689324" duration="30.00"/>
        <stop busStop="4983147855" duration="30.00"/>
    </vehicle>

    <vehicle id="57_train_157:0" type="pt_train" depart="301.00" departLane="0" arrival="690.00">
        <route edges="756094508 46493326 879081748#1 756094522 5671507#0 5671507#1 5671507#2 5671507#3 32965981"/>
        <stop busStop="6342154195" duration="30.00"/>
    </vehicle>

    <vehicle id="5_bus_2610:1" type="pt_bus" depart="79.00" departLane="0" arrival="691.00">
        <route edges="767683111#1 767683110#2 767683108#0 460069727#1 46490537#1 46490537#2 767990686#0 767990686#1 460585329#0 460585329#1 708353351#0 708353351#1 708353351#2 498635438#0 498635438#1 194926843#0 194926843#1 46481752#1 194926850#0 421853810#1 992164861#0 992164861#1 935228363 68325061#0 421853647 495253326#2 495253326#4 763126559#0 5673276#1 420904838 505777313#1 505777310 169267539#0 169267539#1 992144532#0 992144532#1 421852041 681042531#0 682359029#0 682359029#1"/>
        <stop busStop="7167585626" duration="30.00"/>
    </vehicle>

    <vehicle id="94_bus_M31:0" type="pt_bus" depart="262.00" departLane="4" arrival="705.00">
        <route edges="195743211 584971503#0 324118557#0 324118557#1 226041033 324118556#1 420890025 420890027 420890029 439933933 -196117083#1 -5672752#1 -5672752#0 -496986969#1 -496986969#0 497258109#0 5670139 388696206 497165757#0 497165757#1 505778913 375165665 710571390 587038175#1 421851200#0 421851200#1"/>
        <stop busStop="-4794775935" duration="30.00"/>
        <stop busStop="-4794775932" duration="30.00"/>
    </vehicle>

    <vehicle id="163_subway_S:3" type="pt_subway" depart="594.00" departLane="0" arrival="713.00">
        <route edges="-821671622"/>
        <stop busStop="-3918987127" duration="30.00"/>
        <stop busStop="-591997437" duration="30.00"/>
    </vehicle>

    <vehicle id="179_subway_L:1" type="pt_subway" depart="535.00" departLane="0" arrival="727.00">
        <route edges="808580928 554402300#1 554402300#2"/>
        <stop busStop="7618745568" duration="30.00"/>
        <stop busStop="5336193667" duration="30.00"/>
        <stop busStop="591991023" duration="30.00"/>
    </vehicle>

    <vehicle id="39_subway_N:1" type="pt_subway" depart="125.00" departLane="0" arrival="740.00">
        <route edges="817415225 817381403 817381402 821206644 821206643 817383474"/>
        <stop busStop="7656750825" duration="30.00"/>
        <stop busStop="7633705521" duration="30.00"/>
        <stop busStop="7633705517" duration="30.00"/>
        <stop busStop="7633705506" duration="30.00"/>
        <stop busStop="7633705531" duration="30.00"/>
        <stop busStop="7633705534" duration="30.00"/>
        <stop busStop="7656750809" duration="30.00"/>
        <stop busStop="7656750804" duration="30.00"/>
        <stop busStop="4796291635" duration="30.00"/>
    </vehicle>

    <vehicle id="201_subway_3:3" type="pt_subway" depart="599.00" departLane="0" arrival="741.00">
        <route edges="821671629"/>
        <stop busStop="5111472138" duration="30.00"/>
    </vehicle>

    <vehicle id="102_bus_M14D_SBS:0" type="pt_bus" depart="291.00" departLane="1" arrival="742.00">
        <route edges="-666752576#2 -666752576#0 -5670924#2 5672434#0 5672434#1 5672434#2 -196117073#2 -196117073#1 -196117073#0 196117074#1 458106348#2 458106348#3 194923791#0 194923791#2 196117075#0 196117075#1 196117075#2 196117075#3 22909152#0 22909152#1 194923792#0 194923792#1 194923802#0 194923802#1 194923802#2 992132287#0"/>
        <stop busStop="3913758293@12382567" duration="30.00"/>
    </vehicle>

    <vehicle id="200_subway_3:2" type="pt_subway" depart="598.00" departLane="0" arrival="743.00">
        <route edges="803130478"/>
        <stop busStop="5111464772" duration="30.00"/>
    </vehicle>

    <vehicle id="51_train_2170:0" type="pt_train" depart="166.00" departLane="0" arrival="745.00">
        <route edges="316621098 750256036#0 750256036#1 750256036#2 750256036#3 756094477 571475066#0 571475066#1 750256035#0 750256035#1 750256035#2 750256035#3 572231716 571475065"/>
        <stop busStop="6616343384" duration="30.00"/>
    </vehicle>

    <vehicle id="50_train_2165:0" type="pt_train" depart="137.00" departLane="0" arrival="757.00">
        <route edges="46493330 901213208 95579501 756094508 46493326 879081748#1 756094522 5671507#0 5671507#1 5671507#2 5671507#3 32965981"/>
        <stop busStop="6342154195" duration="30.00"/>
    </vehicle>

    <vehicle id="115_bus_M57:1" type="pt_bus" depart="330.00" departLane="1" arrival="767.00">
        <route edges="-196117084#2 -196117084#1 -505582406#1 -505582406#0 -196117083#1 -5672752#1 -5672752#0 -496986969#1 496986969#1 5672752#0 -5672752#0 -496986969#1 -496986969#0 497258109#0 5670139 388696206 497165757#0 497165757#1 505778913 375165665 710571390 587038175#1 421851200#0 421851200#1"/>
        <stop busStop="-4794775932" duration="30.00"/>
        <stop busStop="-4794775935" duration="30.00"/>
    </vehicle>

    <vehicle id="37_subway_E:3" type="pt_subway" depart="122.00" departLane="0" arrival="786.00">
        <route edges="741691192 719086607 816679188 819186609"/>
        <stop busStop="6923621203" duration="30.00"/>
        <stop busStop="6923621236" duration="30.00"/>
        <stop busStop="6923621277" duration="30.00"/>
        <stop busStop="6751642166" duration="30.00"/>
        <stop busStop="7450462465" duration="30.00"/>
        <stop busStop="7657247699" duration="30.00"/>
        <stop busStop="7650207504" duration="30.00"/>
        <stop busStop="7650173977" duration="30.00"/>
    </vehicle>

    <vehicle id="124_bus_M31:1" type="pt_bus" depart="362.00" departLane="1" arrival="788.00">
        <route edges="-421851200#1 -421851200#0 -421851201 -587355676 -375165665 -587038082 -497165757#1 -497165757#0 -388696206 -5670139 -497258109#1 496986969#0 496986969#1 5672752#0 -5672752#0 -496986969#1 496986969#1 5672752#0 5672752#1 196117083#1 505582406#0 505582406#1 196117084#0 196117084#2"/>
        <stop busStop="4794775935" duration="30.00"/>
        <stop busStop="4794775932" duration="30.00"/>
    </vehicle>

    <vehicle id="38_subway_N:0" type="pt_subway" depart="120.00" departLane="0" arrival="795.00">
        <route edges="817383471 817381420 821206638 817381419 817381397 817381417"/>
        <stop busStop="7656750802" duration="30.00"/>
        <stop busStop="7656750805" duration="30.00"/>
        <stop busStop="7656750808" duration="30.00"/>
        <stop busStop="7633689337" duration="30.00"/>
        <stop busStop="7656750813" duration="30.00"/>
        <stop busStop="7633705497" duration="30.00"/>
        <stop busStop="7633689319" duration="30.00"/>
        <stop busStop="7633689324" duration="30.00"/>
        <stop busStop="4983147855" duration="30.00"/>
    </vehicle>

    <vehicle id="40_subway_N:2" type="pt_subway" depart="135.00" departLane="0" arrival="800.00">
        <route edges="817383471 817381420 821206638 817381419 817381397 817381417"/>
        <stop busStop="7656750802" duration="30.00"/>
        <stop busStop="7656750805" duration="30.00"/>
        <stop busStop="7656750808" duration="30.00"/>
        <stop busStop="7633689337" duration="30.00"/>
        <stop busStop="7656750813" duration="30.00"/>
        <stop busStop="7633705497" duration="30.00"/>
        <stop busStop="7633689319" duration="30.00"/>
        <stop busStop="7633689324" duration="30.00"/>
        <stop busStop="4983147855" duration="30.00"/>
    </vehicle>

    <vehicle id="139_subway_2:0" type="pt_subway" depart="401.00" departLane="0" arrival="800.00">
        <route edges="803130478 803137435#0 803137435#1 525428784#1 803142785 808965712#1 808965712#2"/>
        <stop busStop="5111464772" duration="30.00"/>
        <stop busStop="6496930048" duration="30.00"/>
        <stop busStop="4464067393" duration="30.00"/>
    </vehicle>
