<?xml version="1.0" encoding="UTF-8"?>

<!-- generated on 2021-10-23 22:25:06 by Eclipse SUMO sumo Version 1.10.0
<configuration xmlns:xsi="http://www.w3.org/2001/XMLSchema-instance" xsi:noNamespaceSchemaLocation="http://sumo.dlr.de/xsd/sumoConfiguration.xsd">

    <input>
        <net-file value="C:\Users\diani\Sumo\2021-10-23-22-23-54\osm.net.xml"/>
        <route-files value="C:\Users\diani\Sumo\2021-10-23-22-23-54\trips.trips.xml"/>
        <additional-files value="C:\Users\diani\Sumo\2021-10-23-22-23-54\osm_stops.add.xml"/>
    </input>

    <output>
        <vehroute-output value="C:\Users\diani\Sumo\2021-10-23-22-23-54\vehroutes.xml"/>
        <stop-output value="C:\Users\diani\Sumo\2021-10-23-22-23-54\stopinfos.xml"/>
    </output>

    <time>
        <begin value="0"/>
    </time>

    <processing>
        <ignore-route-errors value="true"/>
    </processing>

    <routing>
        <device.rerouting.adaptation-interval value="0"/>
    </routing>

    <report>
        <aggregate-warnings value="5"/>
        <error-log value="C:\Users\diani\Sumo\2021-10-23-22-23-54\trips.trips.xml.errorlog"/>
        <no-step-log value="true"/>
    </report>

</configuration>
-->

<routes xmlns:xsi="http://www.w3.org/2001/XMLSchema-instance" xsi:noNamespaceSchemaLocation="http://sumo.dlr.de/xsd/routes_file.xsd">
    <vehicle id="18_subway_S:0" type="pt_subway" depart="51.00" departLane="0" arrival="165.00">
        <route edges="817036018"/>
        <stop busStop="7630776657" duration="30.00"/>
        <stop busStop="7630776662" duration="30.00"/>
    </vehicle>

    <vehicle id="16_subway_JSQ–33_via_HOB:0" type="pt_subway" depart="42.00" departLane="0" arrival="172.00">
        <route edges="-552266811 -579074444 802782788 813712317"/>
        <stop busStop="-5332398711" duration="30.00"/>
        <stop busStop="5551785165" duration="30.00"/>
    </vehicle>

    <vehicle id="17_subway_JSQ–33_via_HOB:1" type="pt_subway" depart="88.00" departLane="0" arrival="223.00">
        <route edges="813712318 802782787 579074443 552266811"/>
        <stop busStop="5551785164" duration="30.00"/>
        <stop busStop="5332398711" duration="30.00"/>
    </vehicle>

    <vehicle id="43_train_Harlem:0" type="pt_train" depart="127.00" departLane="0" arrival="225.00">
        <route edges="759945015"/>
        <stop busStop="100515086" duration="30.00"/>
    </vehicle>

    <vehicle id="0_bus_2602:0" type="pt_bus" depart="0.00" departLane="0" arrival="228.00">
        <route edges="767683111#1 767683110#2 767683108#0 460069727#1 5672730 207542284 36806908 46492009 968406200 46482819#1 320888292"/>
        <stop busStop="7167585626" duration="30.00"/>
    </vehicle>

    <vehicle id="1_bus_2601:0" type="pt_bus" depart="37.00" departLane="0" arrival="272.00">
        <route edges="767683111#1 767683110#2 767683108#0 460069727#1 5672730 207542284 36806908 46492009 968406200 46482819#1 320888292"/>
        <stop busStop="7167585626" duration="30.00"/>
    </vehicle>

    <vehicle id="19_subway_S:1" type="pt_subway" depart="165.00" departLane="0" arrival="279.00">
        <route edges="-821671625#1"/>
        <stop busStop="-7630776662" duration="30.00"/>
        <stop busStop="-7630776657" duration="30.00"/>
    </vehicle>

    <vehicle id="45_train_Hudson:0" type="pt_train" depart="197.00" departLane="0" arrival="295.00">
        <route edges="759945015"/>
        <stop busStop="100515086" duration="30.00"/>
    </vehicle>

    <vehicle id="2_bus_2601:1" type="pt_bus" depart="6.00" departLane="0" arrival="307.00">
        <route edges="5669566 36806907 46492015 46492007 465256869 465256868 68325075 500182596 5670275 420901925 36806658 36806659#0 36806659#1 767683112#0 767683112#1 767683107#2 767683111#0 767683111#1"/>
        <stop busStop="7167585626" duration="30.00"/>
    </vehicle>

    <vehicle id="44_bus_125:0" type="pt_bus" depart="128.00" departLane="1" arrival="310.00">
        <route edges="8028096 5669218 36807165#0 36807165#1 223694351 273895450 36807166 5669332#1 36836400#0 36836400#1 36807214 -36807212"/>
    </vehicle>

    <vehicle id="3_bus_2602:1" type="pt_bus" depart="11.00" departLane="1" arrival="348.00">
        <route edges="5669566 36806907 46492015 46492007 465256869 465256868 68325075 500182596 5670275 420901925 36806658 36806659#0 36806659#1 767683112#0 767683112#1 767683107#2 767683111#0 767683111#1"/>
        <stop busStop="7167585626" duration="30.00"/>
    </vehicle>

    <vehicle id="93_bus_M23_SBS:0" type="pt_bus" depart="253.00" departLane="0" arrival="350.00">
        <route edges="22904005 763121489 34625463#0 34625463#2 34625463#3 -420908136#0"/>
        <stop busStop="8378777761" duration="30.00"/>
    </vehicle>

    <vehicle id="9_bus_2686:1" type="pt_bus" depart="112.00" departLane="0" arrival="354.00">
        <route edges="767683111#1 767683110#2 767683108#0 460069727#1 5672730 207542284 36806908 46492009 968406200 46482819#1 320888292"/>
        <stop busStop="7167585626" duration="30.00"/>
    </vehicle>

    <vehicle id="86_bus_Q101:0" type="pt_bus" depart="227.00" departLane="1" arrival="359.00">
        <route edges="-46211829#2 -46211829#1 198595548 358290454#1 818182930#0 375164210 46419222#1"/>
        <stop busStop="-4798293326" duration="30.00"/>
        <stop busStop="-4798293327" duration="30.00"/>
    </vehicle>

    <vehicle id="123_bus_M14A_SBS:1" type="pt_bus" depart="334.00" departLane="1" arrival="380.00">
        <route edges="350726031#1"/>
        <stop busStop="3913758293" duration="30.00"/>
    </vehicle>

    <vehicle id="87_bus_Q101:1" type="pt_bus" depart="232.00" departLane="1" arrival="388.00">
        <route edges="-46211829#2 -46211829#1 198595470"/>
        <stop busStop="-4798293326" duration="30.00"/>
        <stop busStop="-4798293327" duration="30.00"/>
    </vehicle>

    <vehicle id="10_bus_2601:2" type="pt_bus" depart="150.00" departLane="0" arrival="393.00">
        <route edges="767683111#1 767683110#2 767683108#0 460069727#1 5672730 207542284 36806908 46492009 968406200 46482819#1 320888292"/>
        <stop busStop="7167585626" duration="30.00"/>
    </vehicle>

    <vehicle id="107_bus_M14A_SBS:0" type="pt_bus" depart="291.00" departLane="1" arrival="393.00">
        <route edges="458106348#0 458106348#1 458106348#2 5670451#0 5670451#2 5670451#3"/>
        <stop busStop="3913758293@12382566" duration="30.00"/>
    </vehicle>

    <vehicle id="111_train_New_Haven:0" type="pt_train" depart="305.00" departLane="0" arrival="403.00">
        <route edges="759945015"/>
        <stop busStop="100515086" duration="30.00"/>
    </vehicle>

    <vehicle id="23_subway_5:1" type="pt_subway" depart="58.00" departLane="0" arrival="421.00">
        <route edges="817013577"/>
        <stop busStop="7630558481" duration="30.00"/>
        <stop busStop="7630410489" duration="30.00"/>
        <stop busStop="7630379982" duration="30.00"/>
    </vehicle>

    <vehicle id="8_bus_2686:0" type="pt_bus" depart="27.00" departLane="1" arrival="433.00">
        <route edges="5669566 36806907 46492015 46492007 465256869 465256868 68325075 500182596 5670275 420901925 36806658 36806659#0 36806659#1 767683112#0 767683112#1 767683107#2 767683111#0 767683111#1"/>
        <stop busStop="7167585626" duration="30.00"/>
    </vehicle>

    <vehicle id="13_bus_2683:1" type="pt_bus" depart="189.00" departLane="0" arrival="433.00">
        <route edges="767683111#1 767683110#2 767683108#0 460069727#1 5672730 207542284 36806908 46492009 968406200 46482819#1 320888292"/>
        <stop busStop="7167585626" duration="30.00"/>
    </vehicle>

    <vehicle id="24_subway_5:2" type="pt_subway" depart="73.00" departLane="0" arrival="435.00">
        <route edges="817013577"/>
        <stop busStop="7630558481" duration="30.00"/>
        <stop busStop="7630410489" duration="30.00"/>
        <stop busStop="7630379982" duration="30.00"/>
    </vehicle>

    <vehicle id="22_subway_5:0" type="pt_subway" depart="58.00" departLane="0" arrival="437.00">
        <route edges="816983740"/>
        <stop busStop="7630379968" duration="30.00"/>
        <stop busStop="7630379974" duration="30.00"/>
        <stop busStop="7630588825" duration="30.00"/>
    </vehicle>

    <vehicle id="25_subway_5:3" type="pt_subway" depart="73.00" departLane="0" arrival="452.00">
        <route edges="816983740"/>
        <stop busStop="7630379968" duration="30.00"/>
        <stop busStop="7630379974" duration="30.00"/>
        <stop busStop="7630588825" duration="30.00"/>
    </vehicle>

    <vehicle id="116_subway_HOB–33:0" type="pt_subway" depart="322.00" departLane="0" arrival="452.00">
        <route edges="-552266810 802782788 813712317"/>
        <stop busStop="-5332358378" duration="30.00"/>
        <stop busStop="5551785165" duration="30.00"/>
    </vehicle>

    <vehicle id="117_subway_JSQ–33:0" type="pt_subway" depart="323.00" departLane="0" arrival="458.00">
        <route edges="813712318 802782787 552256574"/>
        <stop busStop="5551785164" duration="30.00"/>
        <stop busStop="5332398715" duration="30.00"/>
    </vehicle>

    <vehicle id="88_bus_Q60:0" type="pt_bus" depart="302.00" departLane="1" arrival="460.00">
        <route edges="-46211829#2 -46211829#1 198595470"/>
        <stop busStop="-4798293326" duration="30.00"/>
        <stop busStop="-4798293327" duration="30.00"/>
    </vehicle>

    <vehicle id="14_bus_2680:0" type="pt_bus" depart="226.00" departLane="0" arrival="474.00">
        <route edges="767683111#1 767683110#2 767683108#0 460069727#1 5672730 207542284 36806908 46492009 968406200 46482819#1 320888292"/>
        <stop busStop="7167585626" duration="30.00"/>
    </vehicle>

    <vehicle id="11_bus_2601:3" type="pt_bus" depart="34.00" departLane="0" arrival="477.00">
        <route edges="5669566 36806907 46492015 46492007 465256869 465256868 68325075 500182596 5670275 420901925 36806658 36806659#0 36806659#1 767683112#0 767683112#1 767683107#2 767683111#0 767683111#1"/>
        <stop busStop="7167585626" duration="30.00"/>
    </vehicle>

    <vehicle id="20_subway_F:0" type="pt_subway" depart="54.00" departLane="0" arrival="488.00">
        <route edges="797157469 819186626 46340246"/>
        <stop busStop="7656750800" duration="30.00"/>
        <stop busStop="7657247703" duration="30.00"/>
        <stop busStop="597928314" duration="30.00"/>
        <stop busStop="7650206920" duration="30.00"/>
        <stop busStop="7650207492" duration="30.00"/>
        <stop busStop="5551785167" duration="30.00"/>
    </vehicle>

    <vehicle id="46_train_55:0" type="pt_train" depart="131.00" departLane="0" arrival="488.00">
        <route edges="756094508 46493326 879081748#1 756094522 5671507#0 5671507#1 5671507#2 5671507#3 32965981"/>
        <stop busStop="6342154195" duration="30.00"/>
    </vehicle>

    <vehicle id="21_subway_F:1" type="pt_subway" depart="55.00" departLane="0" arrival="490.00">
        <route edges="813712319 819186628 819186615"/>
        <stop busStop="7657247708" duration="30.00"/>
        <stop busStop="7650207498" duration="30.00"/>
        <stop busStop="7657247706" duration="30.00"/>
        <stop busStop="7650206927" duration="30.00"/>
        <stop busStop="7657247702" duration="30.00"/>
        <stop busStop="7656750799" duration="30.00"/>
    </vehicle>

    <vehicle id="159_bus_QM7:0" type="pt_bus" depart="457.00" departLane="1" arrival="493.00">
        <route edges="169383516#1"/>
        <stop busStop="6133359418" duration="30.00"/>
    </vehicle>

    <vehicle id="137_bus_Q101:2" type="pt_bus" depart="445.00" departLane="1" arrival="509.00">
        <route edges="-46211829#1"/>
        <stop busStop="-4798293326" duration="30.00"/>
        <stop busStop="-4798293327" duration="30.00"/>
    </vehicle>

    <vehicle id="12_bus_2683:0" type="pt_bus" depart="35.00" departLane="1" arrival="519.00">
        <route edges="5669566 36806907 46492015 46492007 465256869 465256868 68325075 500182596 5670275 420901925 36806658 36806659#0 36806659#1 767683112#0 767683112#1 767683107#2 767683111#0 767683111#1"/>
        <stop busStop="7167585626" duration="30.00"/>
    </vehicle>

    <vehicle id="26_subway_4:0" type="pt_subway" depart="88.00" departLane="0" arrival="534.00">
        <route edges="816983740"/>
        <stop busStop="7630379968" duration="30.00"/>
        <stop busStop="7630379974" duration="30.00"/>
        <stop busStop="7630588825" duration="30.00"/>
    </vehicle>

    <vehicle id="27_subway_4:1" type="pt_subway" depart="88.00" departLane="0" arrival="548.00">
        <route edges="817013577"/>
        <stop busStop="7630558481" duration="30.00"/>
        <stop busStop="7630410489" duration="30.00"/>
        <stop busStop="7630379982" duration="30.00"/>
    </vehicle>

    <vehicle id="48_train_57:0" type="pt_train" depart="165.00" departLane="0" arrival="555.00">
        <route edges="756094508 46493326 879081748#1 756094522 5671507#0 5671507#1 5671507#2 5671507#3 32965981"/>
        <stop busStop="6342154195" duration="30.00"/>
    </vehicle>

    <vehicle id="139_bus_Q60:1" type="pt_bus" depart="509.00" departLane="1" arrival="572.00">
        <route edges="-46211829#1"/>
        <stop busStop="-4798293326" duration="30.00"/>
        <stop busStop="-4798293327" duration="30.00"/>
    </vehicle>

    <vehicle id="30_subway_D:0" type="pt_subway" depart="79.00" departLane="0" arrival="576.00">
        <route edges="819186630 819186612 715214988 816331850#0 816331850#1 816331850#2 816331850#3 689037416#1 689037416#3 689037416#4 689037416#9 689037416#10 689037416#16"/>
        <stop busStop="7650206934" duration="30.00"/>
        <stop busStop="7657247704" duration="30.00"/>
        <stop busStop="7650206932" duration="30.00"/>
        <stop busStop="7657247698" duration="30.00"/>
        <stop busStop="6463379284" duration="30.00"/>
    </vehicle>

    <vehicle id="157_subway_HOB–33:1" type="pt_subway" depart="441.00" departLane="0" arrival="576.00">
        <route edges="813712318 579074445#0 579074445#1 552266810"/>
        <stop busStop="5551785164" duration="30.00"/>
        <stop busStop="5332358378" duration="30.00"/>
    </vehicle>

    <vehicle id="108_bus_M14D_SBS:0" type="pt_bus" depart="297.00" departLane="1" arrival="585.00">
        <route edges="458106348#0 458106348#1 458106348#2 194923791#0 194923791#2 196117075#0 196117075#1 196117075#2 196117075#3 22909152#0 22909152#1 194923792#0 194923792#1 194923802#0 194923802#1 194923802#2 992132287#0"/>
        <stop busStop="3913758293@12382567" duration="30.00"/>
    </vehicle>

    <vehicle id="15_bus_2680:1" type="pt_bus" depart="42.00" departLane="1" arrival="586.00">
        <route edges="5669566 36806907 46492015 46492007 465256869 465256868 68325075 500182596 5670275 420901925 36806658 36806659#0 36806659#1 767683112#0 767683112#1 767683107#2 767683111#0 767683111#1"/>
        <stop busStop="7167585626" duration="30.00"/>
    </vehicle>

    <vehicle id="158_subway_JSQ–33:1" type="pt_subway" depart="458.00" departLane="0" arrival="588.00">
        <route edges="-552256574 -579074446#1 -579074446#0 813712317"/>
        <stop busStop="-5332398715" duration="30.00"/>
        <stop busStop="5551785165" duration="30.00"/>
    </vehicle>

    <vehicle id="31_subway_D:1" type="pt_subway" depart="91.00" departLane="0" arrival="594.00">
        <route edges="686769237#0 686769237#1 686769237#7 686769237#8 686769237#13 686769237#14 686769237#16 171570637#1 171570637#2 715214987 715214982 819186625"/>
        <stop busStop="6463380721" duration="30.00"/>
        <stop busStop="7657247700" duration="30.00"/>
        <stop busStop="7650206922" duration="30.00"/>
        <stop busStop="591997397" duration="30.00"/>
        <stop busStop="5350434153" duration="30.00"/>
    </vehicle>

    <vehicle id="171_subway_S:2" type="pt_subway" depart="501.00" departLane="0" arrival="610.00">
        <route edges="-484012802"/>
        <stop busStop="591997437" duration="30.00"/>
        <stop busStop="3918987127" duration="30.00"/>
    </vehicle>

    <vehicle id="153_train_64:0" type="pt_train" depart="511.00" departLane="0" arrival="612.00">
        <route edges="756094505"/>
        <stop busStop="6165053270" duration="30.00"/>
    </vehicle>

    <vehicle id="102_bus_M66:0" type="pt_bus" depart="272.00" departLane="1" arrival="620.00">
        <route edges="968393473#0 968393473#3 968393473#6 968393473#7 945384088#1 945384088#4 945384088#6 195743335#1 36185330#1 36185329 -992603349 5673114#0 5673114#1 46334586#0 46334586#1 46334586#2 46334586#3 46334586#5 195743212#1 195743212#2 68668561#0 68668561#1"/>
        <stop busStop="3278932320" duration="30.00"/>
    </vehicle>

    <vehicle id="49_train_2167:0" type="pt_train" depart="233.00" departLane="0" arrival="622.00">
        <route edges="756094508 46493326 879081748#1 756094522 5671507#0 5671507#1 5671507#2 5671507#3 32965981"/>
        <stop busStop="6342154195" duration="30.00"/>
    </vehicle>

    <vehicle id="32_subway_D:2" type="pt_subway" depart="94.00" departLane="0" arrival="626.00">
        <route edges="819186630 819186612 715214988 816331850#0 816331850#1 816331850#2 816331850#3 689037416#1 689037416#3 689037416#4 689037416#9 689037416#10 689037416#16"/>
        <stop busStop="7650206934" duration="30.00"/>
        <stop busStop="7657247704" duration="30.00"/>
        <stop busStop="7650206932" duration="30.00"/>
        <stop busStop="7657247698" duration="30.00"/>
        <stop busStop="6463379284" duration="30.00"/>
    </vehicle>

    <vehicle id="35_subway_E:1" type="pt_subway" depart="102.00" departLane="0" arrival="626.00">
        <route edges="759735515 46340266 719086609 719086610#0"/>
        <stop busStop="591998010" duration="30.00"/>
        <stop busStop="5407862242" duration="30.00"/>
        <stop busStop="7657247701" duration="30.00"/>
        <stop busStop="6751642215" duration="30.00"/>
        <stop busStop="6751622968" duration="30.00"/>
        <stop busStop="6923621274" duration="30.00"/>
        <stop busStop="6923621238" duration="30.00"/>
        <stop busStop="6923621199" duration="30.00"/>
    </vehicle>

    <vehicle id="42_subway_Q:1" type="pt_subway" depart="126.00" departLane="0" arrival="636.00">
        <route edges="46340259 817381421 821206648#0 821206648#1 817381419 817381397 817381417"/>
        <stop busStop="7656750798" duration="30.00"/>
        <stop busStop="7656750807" duration="30.00"/>
        <stop busStop="7633689337" duration="30.00"/>
        <stop busStop="7656750813" duration="30.00"/>
        <stop busStop="7633705497" duration="30.00"/>
        <stop busStop="7633689319" duration="30.00"/>
        <stop busStop="7633689324" duration="30.00"/>
    </vehicle>

    <vehicle id="36_subway_E:2" type="pt_subway" depart="117.00" departLane="0" arrival="640.00">
        <route edges="759735515 46340266 719086609 719086610#0"/>
        <stop busStop="591998010" duration="30.00"/>
        <stop busStop="5407862242" duration="30.00"/>
        <stop busStop="7657247701" duration="30.00"/>
        <stop busStop="6751642215" duration="30.00"/>
        <stop busStop="6751622968" duration="30.00"/>
        <stop busStop="6923621274" duration="30.00"/>
        <stop busStop="6923621238" duration="30.00"/>
        <stop busStop="6923621199" duration="30.00"/>
    </vehicle>

    <vehicle id="47_train_54:0" type="pt_train" depart="131.00" departLane="0" arrival="676.00">
        <route edges="316621098 750256036#0 750256036#1 750256036#2 750256036#3 756094477 571475066#0 571475066#1 750256035#0 750256035#1 750256035#2 750256035#3 572231716 571475065"/>
        <stop busStop="6616343384" duration="30.00"/>
    </vehicle>

    <vehicle id="57_train_157:0" type="pt_train" depart="300.00" departLane="0" arrival="689.00">
        <route edges="756094508 46493326 879081748#1 756094522 5671507#0 5671507#1 5671507#2 5671507#3 32965981"/>
        <stop busStop="6342154195" duration="30.00"/>
    </vehicle>

    <vehicle id="39_subway_N:1" type="pt_subway" depart="119.00" departLane="0" arrival="703.00">
        <route edges="817381409 817381403 817381402 821206644 821206643 817383474"/>
        <stop busStop="7633705521" duration="30.00"/>
        <stop busStop="7633705517" duration="30.00"/>
        <stop busStop="7633705506" duration="30.00"/>
        <stop busStop="7633705531" duration="30.00"/>
        <stop busStop="7633705534" duration="30.00"/>
        <stop busStop="7656750809" duration="30.00"/>
        <stop busStop="7656750804" duration="30.00"/>
        <stop busStop="4796291635" duration="30.00"/>
    </vehicle>

    <vehicle id="33_subway_D:3" type="pt_subway" depart="106.00" departLane="0" arrival="708.00">
        <route edges="686769237#0 686769237#1 686769237#7 686769237#8 686769237#13 686769237#14 686769237#16 171570637#1 171570637#2 715214987 715214982 819186625"/>
        <stop busStop="6463380721" duration="30.00"/>
        <stop busStop="7657247700" duration="30.00"/>
        <stop busStop="7650206922" duration="30.00"/>
        <stop busStop="591997397" duration="30.00"/>
        <stop busStop="5350434153" duration="30.00"/>
    </vehicle>

    <vehicle id="98_bus_M31:0" type="pt_bus" depart="260.00" departLane="4" arrival="708.00">
        <route edges="195743211#1 584971503#0 324118557#0 324118557#1 226041033 324118556#1 420890025 420890027 420890029 439933933 -196117083#1 -5672752#1 -5672752#0 -496986969#1 -496986969#0 497258109#0 5670139 388696206 497165757#0 497165757#1 505778913 375165665 710571390 587038175#1 421851200#0 421851200#1"/>
        <stop busStop="-4794775935" duration="30.00"/>
        <stop busStop="-4794775932" duration="30.00"/>
    </vehicle>

    <vehicle id="38_subway_N:0" type="pt_subway" depart="114.00" departLane="0" arrival="717.00">
        <route edges="817383471 817381420 821206638 817381419 817381397 817381417"/>
        <stop busStop="7656750802" duration="30.00"/>
        <stop busStop="7656750805" duration="30.00"/>
        <stop busStop="7656750808" duration="30.00"/>
        <stop busStop="7633689337" duration="30.00"/>
        <stop busStop="7656750813" duration="30.00"/>
        <stop busStop="7633705497" duration="30.00"/>
        <stop busStop="7633689319" duration="30.00"/>
        <stop busStop="7633689324" duration="30.00"/>
    </vehicle>

    <vehicle id="40_subway_N:2" type="pt_subway" depart="129.00" departLane="0" arrival="722.00">
        <route edges="817383471 817381420 821206638 817381419 817381397 817381417"/>
        <stop busStop="7656750802" duration="30.00"/>
        <stop busStop="7656750805" duration="30.00"/>
        <stop busStop="7656750808" duration="30.00"/>
        <stop busStop="7633689337" duration="30.00"/>
        <stop busStop="7656750813" duration="30.00"/>
        <stop busStop="7633705497" duration="30.00"/>
        <stop busStop="7633689319" duration="30.00"/>
        <stop busStop="7633689324" duration="30.00"/>
    </vehicle>

    <vehicle id="149_subway_3:0" type="pt_subway" depart="410.00" departLane="0" arrival="726.00">
        <route edges="808965711 803142784#1 803142784#2 803142782#1 821671629"/>
        <stop busStop="5106260207" duration="30.00"/>
        <stop busStop="4464067416" duration="30.00"/>
        <stop busStop="5111472138" duration="30.00"/>
    </vehicle>

    <vehicle id="41_subway_Q:0" type="pt_subway" depart="134.00" departLane="0" arrival="729.00">
        <route edges="817381409 817381403 817381402 821206645#0 821206645#1 821206641 817381408"/>
        <stop busStop="7633705521" duration="30.00"/>
        <stop busStop="7633705517" duration="30.00"/>
        <stop busStop="7633705506" duration="30.00"/>
        <stop busStop="7633705531" duration="30.00"/>
        <stop busStop="7633705534" duration="30.00"/>
        <stop busStop="7656750806" duration="30.00"/>
        <stop busStop="7656750801" duration="30.00"/>
    </vehicle>

    <vehicle id="172_subway_S:3" type="pt_subway" depart="610.00" departLane="0" arrival="729.00">
        <route edges="-821671622"/>
        <stop busStop="-3918987127" duration="30.00"/>
        <stop busStop="-591997437" duration="30.00"/>
    </vehicle>

    <vehicle id="148_subway_2:0" type="pt_subway" depart="409.00" departLane="0" arrival="730.00">
        <route edges="803130478 803137435#0 803137435#1 525428784#1 803142785"/>
        <stop busStop="5111464772" duration="30.00"/>
        <stop busStop="6496930048" duration="30.00"/>
        <stop busStop="4464067393" duration="30.00"/>
    </vehicle>

    <vehicle id="209_subway_3:3" type="pt_subway" depart="600.00" departLane="0" arrival="736.00">
        <route edges="821671629"/>
        <stop busStop="5111472138" duration="30.00"/>
    </vehicle>

    <vehicle id="34_subway_E:0" type="pt_subway" depart="99.00" departLane="0" arrival="741.00">
        <route edges="739454520 719086607 816679188 819186609"/>
        <stop busStop="6923621203" duration="30.00"/>
        <stop busStop="6923621236" duration="30.00"/>
        <stop busStop="6923621277" duration="30.00"/>
        <stop busStop="6751642166" duration="30.00"/>
        <stop busStop="7450462465" duration="30.00"/>
        <stop busStop="7657247699" duration="30.00"/>
        <stop busStop="7650207504" duration="30.00"/>
        <stop busStop="7650173977" duration="30.00"/>
    </vehicle>

    <vehicle id="51_train_2170:0" type="pt_train" depart="164.00" departLane="0" arrival="743.00">
        <route edges="316621098 750256036#0 750256036#1 750256036#2 750256036#3 756094477 571475066#0 571475066#1 750256035#0 750256035#1 750256035#2 750256035#3 572231716 571475065"/>
        <stop busStop="6616343384" duration="30.00"/>
    </vehicle>

    <vehicle id="208_subway_3:2" type="pt_subway" depart="598.00" departLane="0" arrival="743.00">
        <route edges="803130478"/>
        <stop busStop="5111464772" duration="30.00"/>
    </vehicle>

    <vehicle id="50_train_2165:0" type="pt_train" depart="133.00" departLane="0" arrival="756.00">
        <route edges="46493330 901213208 95579501 756094508 46493326 879081748#1 756094522 5671507#0 5671507#1 5671507#2 5671507#3 32965981"/>
        <stop busStop="6342154195" duration="30.00"/>
    </vehicle>

    <vehicle id="150_subway_4:2" type="pt_subway" depart="418.00" departLane="0" arrival="781.00">
        <route edges="817013577"/>
        <stop busStop="7630558481" duration="30.00"/>
        <stop busStop="7630410489" duration="30.00"/>
        <stop busStop="7630379982" duration="30.00"/>
    </vehicle>

    <vehicle id="28_subway_A:0" type="pt_subway" depart="72.00" departLane="0" arrival="784.00">
        <route edges="689037413#1 689037413#6 689037413#7 689037412#1 46340129#1 816679186 719086610#0"/>
        <stop busStop="6437617431" duration="30.00"/>
        <stop busStop="6437617428" duration="30.00"/>
        <stop busStop="6437617426" duration="30.00"/>
        <stop busStop="6437617424" duration="30.00"/>
        <stop busStop="6441849564" duration="30.00"/>
        <stop busStop="6463380709" duration="30.00"/>
        <stop busStop="6751642217" duration="30.00"/>
        <stop busStop="6751622968" duration="30.00"/>
        <stop busStop="6923621274" duration="30.00"/>
        <stop busStop="6923621238" duration="30.00"/>
        <stop busStop="6923621199" duration="30.00"/>
    </vehicle>

    <vehicle id="147_subway_5:4" type="pt_subway" depart="406.00" departLane="0" arrival="785.00">
        <route edges="816983740"/>
        <stop busStop="7630379968" duration="30.00"/>
        <stop busStop="7630379974" duration="30.00"/>
        <stop busStop="7630588825" duration="30.00"/>
    </vehicle>

    <vehicle id="100_bus_M72:0" type="pt_bus" depart="265.00" departLane="2" arrival="791.00">
        <route edges="-46694753#6 387128267#14 387128267#15 387128267#17 387128267#19 387128267#21 945384089 945384090 686125781#1 686125781#2 36185330#1 36185329 -992603349 5673114#0 5673114#1 661227257#2 661227257#4 661227257#5 661227257#7 661227257#8 661227257#9 661227257#11 -661227257#11 -661227257#9 -661227257#8 -661227257#7 -661227257#5 -661227257#4 661227257#4 661227257#5 661227257#7 661227257#8 661227257#9 661227257#11 661227257#12"/>
        <stop busStop="3269484626" duration="30.00"/>
        <stop busStop="3269484629" duration="30.00"/>
    </vehicle>

    <vehicle id="165_subway_2:3" type="pt_subway" depart="483.00" departLane="0" arrival="799.00">
        <route edges="808965711 803142784#1 803142784#2 803142782#1 821671629"/>
        <stop busStop="5106260207" duration="30.00"/>
        <stop busStop="4464067416" duration="30.00"/>
        <stop busStop="5111472138" duration="30.00"/>
    </vehicle>

    <vehicle id="166_subway_3:1" type="pt_subway" depart="484.00" departLane="0" arrival="805.00">
        <route edges="803130478 803137435#0 803137435#1 525428784#1 803142785"/>
        <stop busStop="5111464772" duration="30.00"/>
        <stop busStop="6496930048" duration="30.00"/>
        <stop busStop="4464067393" duration="30.00"/>
    </vehicle>

    <vehicle id="141_subway_M:0" type="pt_subway" depart="388.00" departLane="0" arrival="807.00">
        <route edges="759735515 819186611 46340246"/>
        <stop busStop="591998010" duration="30.00"/>
        <stop busStop="5407862242" duration="30.00"/>
        <stop busStop="597928314" duration="30.00"/>
        <stop busStop="7650206920" duration="30.00"/>
        <stop busStop="7650207492" duration="30.00"/>
        <stop busStop="5551785167" duration="30.00"/>
    </vehicle>

    <vehicle id="52_train_2164:0" type="pt_train" depart="197.00" departLane="0" arrival="810.00">
        <route edges="316621098 750256036#0 750256036#1 750256036#2 750256036#3 756094477 571475066#0 571475066#1 750256035#0 750256035#1 750256035#2 750256035#3 572231716 571475065"/>
        <stop busStop="6616343384" duration="30.00"/>
    </vehicle>

    <vehicle id="58_train_141+143:0" type="pt_train" depart="434.00" departLane="0" arrival="823.00">